 Title Card Required
GAUSSIAN             36 MOL ORBITALS    386 PRIMITIVES       18 NUCLEI
  C    1    (CENTRE  1)  -1.32957227  0.06257979 -0.00030354  CHARGE =  6.0
  C    2    (CENTRE  2)   0.03690427  2.32233479 -0.00319482  CHARGE =  6.0
  C    3    (CENTRE  3)  -0.02949780 -2.24287325 -0.00369119  CHARGE =  6.0
  H    4    (CENTRE  4)  -0.98597847  4.11161555 -0.00395278  CHARGE =  1.0
  H    5    (CENTRE  5)  -1.08079743 -4.01402922 -0.00495460  CHARGE =  1.0
  C    6    (CENTRE  6)   2.66582333  2.27953080 -0.00835726  CHARGE =  6.0
  C    7    (CENTRE  7)   2.59671400 -2.26855751 -0.00895652  CHARGE =  6.0
  H    8    (CENTRE  8)   3.71292642  4.05793331 -0.01379896  CHARGE =  1.0
  H    9    (CENTRE  9)   3.59446308 -4.07568927 -0.01494657  CHARGE =  1.0
  C   10    (CENTRE 10)   3.98804417 -0.01250821 -0.00917281  CHARGE =  6.0
  C   11    (CENTRE 11)  -4.13535222  0.19622899  0.00263577  CHARGE =  6.0
  O   12    (CENTRE 12)  -5.34417186  2.14477161  0.00391135  CHARGE =  8.0
  O   13    (CENTRE 13)  -5.23989677 -2.08420545  0.00414701  CHARGE =  8.0
  H   14    (CENTRE 14)  -7.05202469 -1.80043569  0.00616348  CHARGE =  1.0
  C   15    (CENTRE 15)   6.83224472 -0.07628009  0.01197702  CHARGE =  6.0
  H   16    (CENTRE 16)   7.63953204  1.81353733 -0.27783288  CHARGE =  1.0
  H   17    (CENTRE 17)   7.53316041 -0.80323251  1.83193988  CHARGE =  1.0
  H   18    (CENTRE 18)   7.55941857 -1.33696078 -1.47270436  CHARGE =  1.0
CENTRE ASSIGNMENTS    1  1  1  1  1  1  1  1  1  1  1  1  1  1  1  1  1  1  1  1
CENTRE ASSIGNMENTS    1  1  1  1  1  1  1  1  1  1  1  1  1  2  2  2  2  2  2  2
CENTRE ASSIGNMENTS    2  2  2  2  2  2  2  2  2  2  2  2  2  2  2  2  2  2  2  2
CENTRE ASSIGNMENTS    2  2  2  2  2  2  3  3  3  3  3  3  3  3  3  3  3  3  3  3
CENTRE ASSIGNMENTS    3  3  3  3  3  3  3  3  3  3  3  3  3  3  3  3  3  3  3  4
CENTRE ASSIGNMENTS    4  4  4  4  4  4  5  5  5  5  5  5  5  6  6  6  6  6  6  6
CENTRE ASSIGNMENTS    6  6  6  6  6  6  6  6  6  6  6  6  6  6  6  6  6  6  6  6
CENTRE ASSIGNMENTS    6  6  6  6  6  6  7  7  7  7  7  7  7  7  7  7  7  7  7  7
CENTRE ASSIGNMENTS    7  7  7  7  7  7  7  7  7  7  7  7  7  7  7  7  7  7  7  8
CENTRE ASSIGNMENTS    8  8  8  8  8  8  9  9  9  9  9  9  9 10 10 10 10 10 10 10
CENTRE ASSIGNMENTS   10 10 10 10 10 10 10 10 10 10 10 10 10 10 10 10 10 10 10 10
CENTRE ASSIGNMENTS   10 10 10 10 10 10 11 11 11 11 11 11 11 11 11 11 11 11 11 11
CENTRE ASSIGNMENTS   11 11 11 11 11 11 11 11 11 11 11 11 11 11 11 11 11 11 11 12
CENTRE ASSIGNMENTS   12 12 12 12 12 12 12 12 12 12 12 12 12 12 12 12 12 12 12 12
CENTRE ASSIGNMENTS   12 12 12 12 12 12 12 12 12 12 12 12 13 13 13 13 13 13 13 13
CENTRE ASSIGNMENTS   13 13 13 13 13 13 13 13 13 13 13 13 13 13 13 13 13 13 13 13
CENTRE ASSIGNMENTS   13 13 13 13 13 14 14 14 14 14 14 14 15 15 15 15 15 15 15 15
CENTRE ASSIGNMENTS   15 15 15 15 15 15 15 15 15 15 15 15 15 15 15 15 15 15 15 15
CENTRE ASSIGNMENTS   15 15 15 15 15 16 16 16 16 16 16 16 17 17 17 17 17 17 17 18
CENTRE ASSIGNMENTS   18 18 18 18 18 18
TYPE ASSIGNMENTS      1  1  1  1  1  1  1  1  1  1  1  1  1  1  1  2  2  2  3  3
TYPE ASSIGNMENTS      3  4  4  4  2  3  4  5  6  7  8  9 10  1  1  1  1  1  1  1
TYPE ASSIGNMENTS      1  1  1  1  1  1  1  1  2  2  2  3  3  3  4  4  4  2  3  4
TYPE ASSIGNMENTS      5  6  7  8  9 10  1  1  1  1  1  1  1  1  1  1  1  1  1  1
TYPE ASSIGNMENTS      1  2  2  2  3  3  3  4  4  4  2  3  4  5  6  7  8  9 10  1
TYPE ASSIGNMENTS      1  1  1  2  3  4  1  1  1  1  2  3  4  1  1  1  1  1  1  1
TYPE ASSIGNMENTS      1  1  1  1  1  1  1  1  2  2  2  3  3  3  4  4  4  2  3  4
TYPE ASSIGNMENTS      5  6  7  8  9 10  1  1  1  1  1  1  1  1  1  1  1  1  1  1
TYPE ASSIGNMENTS      1  2  2  2  3  3  3  4  4  4  2  3  4  5  6  7  8  9 10  1
TYPE ASSIGNMENTS      1  1  1  2  3  4  1  1  1  1  2  3  4  1  1  1  1  1  1  1
TYPE ASSIGNMENTS      1  1  1  1  1  1  1  1  2  2  2  3  3  3  4  4  4  2  3  4
TYPE ASSIGNMENTS      5  6  7  8  9 10  1  1  1  1  1  1  1  1  1  1  1  1  1  1
TYPE ASSIGNMENTS      1  2  2  2  3  3  3  4  4  4  2  3  4  5  6  7  8  9 10  1
TYPE ASSIGNMENTS      1  1  1  1  1  1  1  1  1  1  1  1  1  1  2  2  2  3  3  3
TYPE ASSIGNMENTS      4  4  4  2  3  4  5  6  7  8  9 10  1  1  1  1  1  1  1  1
TYPE ASSIGNMENTS      1  1  1  1  1  1  1  2  2  2  3  3  3  4  4  4  2  3  4  5
TYPE ASSIGNMENTS      6  7  8  9 10  1  1  1  1  2  3  4  1  1  1  1  1  1  1  1
TYPE ASSIGNMENTS      1  1  1  1  1  1  1  2  2  2  3  3  3  4  4  4  2  3  4  5
TYPE ASSIGNMENTS      6  7  8  9 10  1  1  1  1  2  3  4  1  1  1  1  2  3  4  1
TYPE ASSIGNMENTS      1  1  1  2  3  4
EXPONENTS  0.6665000D+04 0.1000000D+04 0.2280000D+03 0.6471000D+02 0.2106000D+02
EXPONENTS  0.7495000D+01 0.2797000D+01 0.6665000D+04 0.2280000D+03 0.6471000D+02
EXPONENTS  0.2106000D+02 0.7495000D+01 0.2797000D+01 0.5215000D+00 0.1596000D+00
EXPONENTS  0.9439000D+01 0.2002000D+01 0.5456000D+00 0.9439000D+01 0.2002000D+01
EXPONENTS  0.5456000D+00 0.9439000D+01 0.2002000D+01 0.5456000D+00 0.1517000D+00
EXPONENTS  0.1517000D+00 0.1517000D+00 0.5500000D+00 0.5500000D+00 0.5500000D+00
EXPONENTS  0.5500000D+00 0.5500000D+00 0.5500000D+00 0.6665000D+04 0.1000000D+04
EXPONENTS  0.2280000D+03 0.6471000D+02 0.2106000D+02 0.7495000D+01 0.2797000D+01
EXPONENTS  0.6665000D+04 0.2280000D+03 0.6471000D+02 0.2106000D+02 0.7495000D+01
EXPONENTS  0.2797000D+01 0.5215000D+00 0.1596000D+00 0.9439000D+01 0.2002000D+01
EXPONENTS  0.5456000D+00 0.9439000D+01 0.2002000D+01 0.5456000D+00 0.9439000D+01
EXPONENTS  0.2002000D+01 0.5456000D+00 0.1517000D+00 0.1517000D+00 0.1517000D+00
EXPONENTS  0.5500000D+00 0.5500000D+00 0.5500000D+00 0.5500000D+00 0.5500000D+00
EXPONENTS  0.5500000D+00 0.6665000D+04 0.1000000D+04 0.2280000D+03 0.6471000D+02
EXPONENTS  0.2106000D+02 0.7495000D+01 0.2797000D+01 0.6665000D+04 0.2280000D+03
EXPONENTS  0.6471000D+02 0.2106000D+02 0.7495000D+01 0.2797000D+01 0.5215000D+00
EXPONENTS  0.1596000D+00 0.9439000D+01 0.2002000D+01 0.5456000D+00 0.9439000D+01
EXPONENTS  0.2002000D+01 0.5456000D+00 0.9439000D+01 0.2002000D+01 0.5456000D+00
EXPONENTS  0.1517000D+00 0.1517000D+00 0.1517000D+00 0.5500000D+00 0.5500000D+00
EXPONENTS  0.5500000D+00 0.5500000D+00 0.5500000D+00 0.5500000D+00 0.1301000D+02
EXPONENTS  0.1962000D+01 0.4446000D+00 0.1220000D+00 0.7270000D+00 0.7270000D+00
EXPONENTS  0.7270000D+00 0.1301000D+02 0.1962000D+01 0.4446000D+00 0.1220000D+00
EXPONENTS  0.7270000D+00 0.7270000D+00 0.7270000D+00 0.6665000D+04 0.1000000D+04
EXPONENTS  0.2280000D+03 0.6471000D+02 0.2106000D+02 0.7495000D+01 0.2797000D+01
EXPONENTS  0.6665000D+04 0.2280000D+03 0.6471000D+02 0.2106000D+02 0.7495000D+01
EXPONENTS  0.2797000D+01 0.5215000D+00 0.1596000D+00 0.9439000D+01 0.2002000D+01
EXPONENTS  0.5456000D+00 0.9439000D+01 0.2002000D+01 0.5456000D+00 0.9439000D+01
EXPONENTS  0.2002000D+01 0.5456000D+00 0.1517000D+00 0.1517000D+00 0.1517000D+00
EXPONENTS  0.5500000D+00 0.5500000D+00 0.5500000D+00 0.5500000D+00 0.5500000D+00
EXPONENTS  0.5500000D+00 0.6665000D+04 0.1000000D+04 0.2280000D+03 0.6471000D+02
EXPONENTS  0.2106000D+02 0.7495000D+01 0.2797000D+01 0.6665000D+04 0.2280000D+03
EXPONENTS  0.6471000D+02 0.2106000D+02 0.7495000D+01 0.2797000D+01 0.5215000D+00
EXPONENTS  0.1596000D+00 0.9439000D+01 0.2002000D+01 0.5456000D+00 0.9439000D+01
EXPONENTS  0.2002000D+01 0.5456000D+00 0.9439000D+01 0.2002000D+01 0.5456000D+00
EXPONENTS  0.1517000D+00 0.1517000D+00 0.1517000D+00 0.5500000D+00 0.5500000D+00
EXPONENTS  0.5500000D+00 0.5500000D+00 0.5500000D+00 0.5500000D+00 0.1301000D+02
EXPONENTS  0.1962000D+01 0.4446000D+00 0.1220000D+00 0.7270000D+00 0.7270000D+00
EXPONENTS  0.7270000D+00 0.1301000D+02 0.1962000D+01 0.4446000D+00 0.1220000D+00
EXPONENTS  0.7270000D+00 0.7270000D+00 0.7270000D+00 0.6665000D+04 0.1000000D+04
EXPONENTS  0.2280000D+03 0.6471000D+02 0.2106000D+02 0.7495000D+01 0.2797000D+01
EXPONENTS  0.6665000D+04 0.2280000D+03 0.6471000D+02 0.2106000D+02 0.7495000D+01
EXPONENTS  0.2797000D+01 0.5215000D+00 0.1596000D+00 0.9439000D+01 0.2002000D+01
EXPONENTS  0.5456000D+00 0.9439000D+01 0.2002000D+01 0.5456000D+00 0.9439000D+01
EXPONENTS  0.2002000D+01 0.5456000D+00 0.1517000D+00 0.1517000D+00 0.1517000D+00
EXPONENTS  0.5500000D+00 0.5500000D+00 0.5500000D+00 0.5500000D+00 0.5500000D+00
EXPONENTS  0.5500000D+00 0.6665000D+04 0.1000000D+04 0.2280000D+03 0.6471000D+02
EXPONENTS  0.2106000D+02 0.7495000D+01 0.2797000D+01 0.6665000D+04 0.2280000D+03
EXPONENTS  0.6471000D+02 0.2106000D+02 0.7495000D+01 0.2797000D+01 0.5215000D+00
EXPONENTS  0.1596000D+00 0.9439000D+01 0.2002000D+01 0.5456000D+00 0.9439000D+01
EXPONENTS  0.2002000D+01 0.5456000D+00 0.9439000D+01 0.2002000D+01 0.5456000D+00
EXPONENTS  0.1517000D+00 0.1517000D+00 0.1517000D+00 0.5500000D+00 0.5500000D+00
EXPONENTS  0.5500000D+00 0.5500000D+00 0.5500000D+00 0.5500000D+00 0.1172000D+05
EXPONENTS  0.1759000D+04 0.4008000D+03 0.1137000D+03 0.3703000D+02 0.1327000D+02
EXPONENTS  0.5025000D+01 0.1172000D+05 0.4008000D+03 0.1137000D+03 0.3703000D+02
EXPONENTS  0.1327000D+02 0.5025000D+01 0.1013000D+01 0.3023000D+00 0.1770000D+02
EXPONENTS  0.3854000D+01 0.1046000D+01 0.1770000D+02 0.3854000D+01 0.1046000D+01
EXPONENTS  0.1770000D+02 0.3854000D+01 0.1046000D+01 0.2753000D+00 0.2753000D+00
EXPONENTS  0.2753000D+00 0.1185000D+01 0.1185000D+01 0.1185000D+01 0.1185000D+01
EXPONENTS  0.1185000D+01 0.1185000D+01 0.1172000D+05 0.1759000D+04 0.4008000D+03
EXPONENTS  0.1137000D+03 0.3703000D+02 0.1327000D+02 0.5025000D+01 0.1172000D+05
EXPONENTS  0.4008000D+03 0.1137000D+03 0.3703000D+02 0.1327000D+02 0.5025000D+01
EXPONENTS  0.1013000D+01 0.3023000D+00 0.1770000D+02 0.3854000D+01 0.1046000D+01
EXPONENTS  0.1770000D+02 0.3854000D+01 0.1046000D+01 0.1770000D+02 0.3854000D+01
EXPONENTS  0.1046000D+01 0.2753000D+00 0.2753000D+00 0.2753000D+00 0.1185000D+01
EXPONENTS  0.1185000D+01 0.1185000D+01 0.1185000D+01 0.1185000D+01 0.1185000D+01
EXPONENTS  0.1301000D+02 0.1962000D+01 0.4446000D+00 0.1220000D+00 0.7270000D+00
EXPONENTS  0.7270000D+00 0.7270000D+00 0.6665000D+04 0.1000000D+04 0.2280000D+03
EXPONENTS  0.6471000D+02 0.2106000D+02 0.7495000D+01 0.2797000D+01 0.6665000D+04
EXPONENTS  0.2280000D+03 0.6471000D+02 0.2106000D+02 0.7495000D+01 0.2797000D+01
EXPONENTS  0.5215000D+00 0.1596000D+00 0.9439000D+01 0.2002000D+01 0.5456000D+00
EXPONENTS  0.9439000D+01 0.2002000D+01 0.5456000D+00 0.9439000D+01 0.2002000D+01
EXPONENTS  0.5456000D+00 0.1517000D+00 0.1517000D+00 0.1517000D+00 0.5500000D+00
EXPONENTS  0.5500000D+00 0.5500000D+00 0.5500000D+00 0.5500000D+00 0.5500000D+00
EXPONENTS  0.1301000D+02 0.1962000D+01 0.4446000D+00 0.1220000D+00 0.7270000D+00
EXPONENTS  0.7270000D+00 0.7270000D+00 0.1301000D+02 0.1962000D+01 0.4446000D+00
EXPONENTS  0.1220000D+00 0.7270000D+00 0.7270000D+00 0.7270000D+00 0.1301000D+02
EXPONENTS  0.1962000D+01 0.4446000D+00 0.1220000D+00 0.7270000D+00 0.7270000D+00
EXPONENTS  0.7270000D+00
MO    1     MO 0.0        OCC NO =    2.0000000  ORB. ENERGY =  -19.315488
  0.10670267D-04  0.19812165D-04  0.33210561D-04  0.48536091D-04  0.56493371D-04
  0.42619367D-04  0.12972539D-04  0.23690810D-07  0.67757856D-07 -0.24433739D-06
 -0.36543522D-06 -0.19951553D-05 -0.11812846D-05  0.28020877D-05 -0.37089528D-03
  0.25642753D-03  0.20288609D-03  0.96986705D-04 -0.16701299D-03 -0.13214109D-03
 -0.63168099D-04 -0.48526396D-06 -0.38394203D-06 -0.18353783D-06  0.29528418D-03
  0.76659929D-03 -0.13251563D-06 -0.14800216D-03  0.12991841D-03  0.18083748D-04
 -0.15490823D-03  0.39694300D-06 -0.29680377D-06  0.91653399D-05  0.17017870D-04
  0.28526566D-04  0.41690593D-04  0.48525584D-04  0.36608360D-04  0.11142901D-04
  0.35784553D-06  0.10234705D-05 -0.36906734D-05 -0.55198348D-05 -0.30136470D-04
 -0.17843097D-04  0.42325042D-04 -0.11289511D-02  0.22447954D-03  0.17760876D-03
  0.84903252D-04  0.85097516D-04  0.67329363D-04  0.32185809D-04 -0.30089021D-06
 -0.23806507D-06 -0.11380350D-06 -0.35677993D-03  0.20957190D-03  0.31745128D-06
 -0.11813803D-03  0.11098798D-03  0.71500432D-05 -0.53404885D-04  0.94186012D-06
 -0.76204253D-07 -0.43785368D-05 -0.81299080D-05 -0.13627931D-04 -0.19916751D-04
 -0.23182016D-04 -0.17488828D-04 -0.53232726D-05 -0.59658678D-06 -0.17062921D-05
  0.61529538D-05  0.92024638D-05  0.50242405D-04  0.29747349D-04 -0.70562740D-04
  0.33988492D-03 -0.10866398D-04 -0.85975208D-05 -0.41099181D-05  0.24217642D-04
  0.19161058D-04  0.91596612D-05 -0.13550479D-06 -0.10721172D-06 -0.51250984D-07
 -0.38451826D-03  0.17174574D-03  0.59631331D-06 -0.13653017D-04  0.17440065D-04
 -0.37870480D-05  0.15656165D-04 -0.20398231D-06  0.16249902D-06 -0.36739461D-04
 -0.62318980D-04 -0.70929814D-04 -0.48228193D-04  0.47464791D-04  0.20623459D-04
 -0.13764631D-06 -0.29546600D-04 -0.50118154D-04 -0.57043157D-04 -0.50562983D-04
  0.13993849D-03 -0.80406562D-04 -0.21892911D-06 -0.17055607D-04 -0.31668232D-04
 -0.53084546D-04 -0.77581236D-04 -0.90300340D-04 -0.68123803D-04 -0.20735614D-04
 -0.10091305D-05 -0.28862044D-05  0.10407763D-04  0.15566029D-04  0.84985365D-04
  0.50317840D-04 -0.11935735D-03  0.91768587D-03 -0.14580770D-03 -0.11536341D-03
 -0.55147779D-04 -0.81988265D-05 -0.64869316D-05 -0.31009820D-05  0.37639729D-06
  0.29780646D-06  0.14236199D-06 -0.27021102D-03 -0.13124922D-03  0.10156822D-05
  0.83188062D-04 -0.34969491D-05 -0.79691113D-04 -0.72886027D-04 -0.70583410D-06
 -0.28604612D-06 -0.55110310D-05 -0.10232682D-04 -0.17152750D-04 -0.25068154D-04
 -0.29177968D-04 -0.22012256D-04 -0.67001196D-05 -0.46220152D-06 -0.13219381D-05
  0.47669588D-05  0.71295457D-05  0.38924959D-04  0.23046555D-04 -0.54667999D-04
  0.34195985D-03  0.61236282D-04  0.48450296D-04  0.23160950D-04  0.49892841D-04
  0.39475338D-04  0.18870604D-04 -0.12923471D-05 -0.10225082D-05 -0.48879499D-06
 -0.21293547D-03 -0.38472818D-04  0.11539308D-05  0.21773023D-04 -0.22959640D-05
 -0.19477059D-04  0.38397165D-04 -0.13880486D-06  0.71339913D-07 -0.69483936D-05
 -0.11786150D-04 -0.13414684D-04  0.49002736D-04  0.76370206D-04 -0.46191242D-05
 -0.27897149D-06 -0.63607432D-05 -0.10789354D-04 -0.12280157D-04  0.28791549D-04
  0.27604471D-04  0.31425560D-04 -0.39325640D-06  0.37649298D-05  0.69905850D-05
  0.11718116D-04  0.17125623D-04  0.19933294D-04  0.15037948D-04  0.45772706D-05
  0.86544728D-07  0.24752574D-06 -0.89258718D-06 -0.13349688D-05 -0.72884875D-05
 -0.43153424D-05  0.10236286D-04 -0.14036892D-03 -0.34117417D-04 -0.26993784D-04
 -0.12903981D-04 -0.56322814D-04 -0.44562748D-04 -0.21302565D-04 -0.75625697D-06
 -0.59835236D-06 -0.28603353D-06  0.17293552D-03 -0.11197390D-03 -0.18345096D-05
 -0.33397254D-05 -0.24107103D-04  0.27446829D-04  0.43302391D-04 -0.35532861D-05
 -0.50210582D-06  0.11801891D-04  0.21913322D-04  0.36732670D-04  0.53683532D-04
  0.62484712D-04  0.47139316D-04  0.14348328D-04  0.11316716D-05  0.32366830D-05
 -0.11671601D-04 -0.17456248D-04 -0.95305336D-04 -0.56428053D-04  0.13385119D-03
  0.12400510D-02 -0.18068457D-03 -0.14295807D-03 -0.68338998D-04 -0.51483072D-03
 -0.40733532D-03 -0.19472065D-03  0.29774845D-06  0.23557930D-06  0.11261521D-06
 -0.27509606D-03 -0.10208102D-02  0.38596018D-06  0.28458058D-03 -0.94193518D-04
 -0.19038706D-03 -0.30916046D-03 -0.10671171D-05  0.19778398D-06 -0.24048193D-03
 -0.44681881D-03 -0.74979747D-03 -0.10978669D-02 -0.12785770D-02 -0.94181949D-03
 -0.27500153D-03 -0.29002785D-05 -0.94018357D-05  0.34579120D-04  0.54658712D-04
  0.28109606D-03  0.11942216D-03 -0.37051740D-03  0.42342175D-03 -0.22044362D-03
 -0.17447806D-03 -0.75959305D-04  0.25969614D-03  0.20554588D-03  0.89484731D-04
  0.39862372D-06  0.31550514D-06  0.13735567D-06  0.27454277D-03  0.23343854D-03
 -0.35733955D-06  0.46700397D-03 -0.54759739D-03  0.80593425D-04 -0.15182471D-03
 -0.88792545D-06  0.14701304D-06  0.56956712D+00  0.10582637D+01  0.17758506D+01
  0.26002324D+01  0.30282333D+01  0.22306433D+01  0.65132473D+00  0.14303278D-03
  0.46366948D-03 -0.17053353D-02 -0.26955988D-02 -0.13862789D-01 -0.58895321D-02
  0.18272773D-01 -0.43216759D-02 -0.20460768D-02 -0.16194414D-02 -0.70502641D-03
  0.48622529D-02  0.38484056D-02  0.16754096D-02  0.14841017D-05  0.11746459D-05
  0.51138397D-06 -0.36641111D-03 -0.10748583D-02  0.62294869D-06  0.61836413D-03
 -0.54449637D-03 -0.73867755D-04 -0.35911254D-03 -0.14718800D-05  0.48252727D-06
  0.48123131D-04  0.81628428D-04  0.92907317D-04 -0.64906581D-04 -0.83915873D-03
  0.32228821D-03  0.85593103D-06 -0.31695803D-05 -0.58851616D-05 -0.98651268D-05
 -0.14417543D-04 -0.16781236D-04 -0.12659993D-04 -0.38534654D-05 -0.33956316D-06
 -0.97118130D-06  0.35021166D-05  0.52378259D-05  0.28596795D-04  0.16931491D-04
 -0.40162652D-04 -0.68426742D-04  0.44285447D-04  0.35038754D-04  0.16749760D-04
 -0.34028766D-05 -0.26923643D-05 -0.12870451D-05 -0.58045608D-05 -0.45925827D-05
 -0.21954165D-05  0.18813069D-05  0.19627953D-04  0.60023840D-05  0.11531466D-04
  0.39723864D-05 -0.15503853D-04 -0.21326951D-04 -0.32222228D-05  0.12116825D-05
 -0.17934620D-05 -0.30421437D-05 -0.34624875D-05  0.10111150D-04 -0.27787086D-04
 -0.41655654D-05 -0.28633001D-05 -0.81791467D-06 -0.13873804D-05 -0.15790797D-05
 -0.59033699D-06  0.23340997D-04 -0.80678846D-05 -0.14422411D-04  0.11296618D-05
  0.19161787D-05  0.21809439D-05  0.77737772D-05  0.20612748D-04 -0.35360096D-05
  0.10603234D-04
MO    2     MO 0.0        OCC NO =    2.0000000  ORB. ENERGY =  -19.257012
  0.19943144D-05  0.37029706D-05  0.62071830D-05  0.90715841D-05  0.10558831D-04
  0.79657253D-05  0.24246181D-05 -0.38644931D-06 -0.11052799D-05  0.39856813D-05
  0.59610536D-05  0.32545379D-04  0.19269355D-04 -0.45708224D-04  0.17515151D-03
  0.18133901D-03  0.14347587D-03  0.68586523D-04  0.20037103D-03  0.15853405D-03
  0.75784867D-04 -0.31726384D-06 -0.25101993D-06 -0.11999638D-06  0.28169364D-06
 -0.10640076D-02  0.70613892D-08 -0.68759986D-04  0.89750675D-04 -0.20990688D-04
  0.52263507D-03  0.15004439D-06  0.12474817D-06 -0.10272024D-04 -0.19072721D-04
 -0.31971053D-04 -0.46724593D-04 -0.54384885D-04 -0.41028696D-04 -0.12488369D-04
 -0.11487473D-05 -0.32855209D-05  0.11847713D-04  0.17719644D-04  0.96743388D-04
  0.57279489D-04 -0.13587085D-03  0.70906624D-03 -0.14267995D-04 -0.11288872D-04
 -0.53964791D-05  0.65003692D-04  0.51431081D-04  0.24585870D-04 -0.68098929D-07
 -0.53880039D-07 -0.25756559D-07 -0.31589547D-03 -0.26034275D-03  0.44177819D-06
  0.64999939D-04 -0.73185951D-04  0.81860124D-05 -0.20033502D-04 -0.57663104D-06
  0.66579076D-07  0.14184878D-04  0.26337966D-04  0.44149573D-04  0.64523081D-04
  0.75101359D-04  0.56657485D-04  0.17245481D-04  0.93495296D-06  0.26740499D-05
 -0.96427251D-05 -0.14421826D-04 -0.78738394D-04 -0.46619155D-04  0.11058381D-03
 -0.11569703D-02  0.12615856D-03  0.99816960D-04  0.47716027D-04 -0.32491880D-04
 -0.25707655D-04 -0.12289166D-04 -0.18518212D-06 -0.14651655D-06 -0.70040075D-07
 -0.20666380D-04 -0.30576208D-03 -0.23569848D-06 -0.17314912D-03  0.15453993D-03
  0.18609189D-04  0.11932164D-03  0.13218977D-05  0.46905729D-07 -0.16167631D-04
 -0.27424198D-04 -0.31213497D-04 -0.31094855D-04  0.18050706D-03  0.80899040D-04
 -0.15020270D-06 -0.20544787D-04 -0.34848910D-04 -0.39664107D-04 -0.42357470D-04
 -0.46061481D-04 -0.19863270D-04 -0.90138003D-07 -0.98419473D-06 -0.18274170D-05
 -0.30632465D-05 -0.44768293D-05 -0.52107859D-05 -0.39310877D-05 -0.11965497D-05
 -0.22896795D-06 -0.65486902D-06  0.23614825D-05  0.35318739D-05  0.19282862D-04
  0.11416930D-04 -0.27081737D-04  0.11186922D-04  0.12932134D-03  0.10231936D-03
  0.48912262D-04 -0.43385735D-04 -0.34326900D-04 -0.16409468D-04 -0.19609890D-05
 -0.15515393D-05 -0.74169050D-06 -0.17953179D-03  0.12856795D-03  0.10212743D-05
 -0.97141758D-05  0.78837870D-05  0.18303888D-05  0.64249163D-06  0.72410354D-07
  0.64899702D-07 -0.12244099D-04 -0.22734398D-04 -0.38109016D-04 -0.55695015D-04
 -0.64825969D-04 -0.48905592D-04 -0.14885949D-04 -0.59699779D-06 -0.17074676D-05
  0.61571928D-05  0.92088037D-05  0.50277019D-04  0.29767843D-04 -0.70611353D-04
  0.63632551D-03 -0.18730926D-03 -0.14819955D-03 -0.70844609D-04 -0.18617829D-04
 -0.14730472D-04 -0.70416848D-05  0.13574582D-05  0.10740242D-05  0.51342145D-06
 -0.76286960D-04  0.19851460D-03  0.32745064D-06  0.87862649D-04 -0.21063404D-04
 -0.66799245D-04  0.73388828D-04 -0.65222118D-06  0.33607795D-06 -0.55055316D-05
 -0.93387084D-05 -0.10629071D-04  0.53519236D-05  0.24774677D-04 -0.31111285D-04
 -0.34613432D-06  0.39778256D-05  0.67473508D-05  0.76796562D-05  0.42226749D-04
  0.34621564D-04 -0.10084255D-04 -0.82475542D-07  0.15500048D-05  0.28779927D-05
  0.48242962D-05  0.70505428D-05  0.82064484D-05  0.61910562D-05  0.18844419D-05
 -0.14948796D-07 -0.42754907D-07  0.15417581D-06  0.23058801D-06  0.12589342D-05
  0.74538537D-06 -0.17681049D-05 -0.84327066D-04 -0.11570126D-04 -0.91543119D-05
 -0.43760839D-05  0.53341725D-04  0.42204104D-04  0.20175050D-04 -0.42237733D-06
 -0.33418598D-06 -0.15975268D-06  0.94522588D-04  0.23544195D-03 -0.10858135D-05
  0.24522058D-05 -0.16920717D-04  0.14468511D-04 -0.48609420D-04 -0.21729014D-05
  0.12440780D-05  0.78945103D-04  0.14658240D-03  0.24571185D-03  0.35909941D-03
  0.41797219D-03  0.31532390D-03  0.95978708D-04  0.26311167D-05  0.75252314D-05
 -0.27136269D-04 -0.40585473D-04 -0.22158324D-03 -0.13119424D-03  0.31120167D-03
  0.85204980D-03  0.12491638D-03  0.98834147D-04  0.47246207D-04 -0.18352760D-04
 -0.14520749D-04 -0.69414299D-05 -0.94786624D-07 -0.74995409D-07 -0.35850450D-07
 -0.46511939D-03  0.10616227D-02  0.49434564D-06  0.20683285D-03 -0.31130760D-03
  0.10447475D-03  0.10666604D-02 -0.23880303D-06 -0.99674979D-06  0.56958374D+00
  0.10582946D+01  0.17759024D+01  0.26003083D+01  0.30283217D+01  0.22307084D+01
  0.65134374D+00  0.14415588D-03  0.46731027D-03 -0.17187258D-02 -0.27167649D-02
 -0.13971641D-01 -0.59357773D-02  0.18416253D-01 -0.46035907D-02  0.31592384D-02
  0.25004933D-02  0.10885938D-02 -0.53133266D-02 -0.42054242D-02 -0.18308382D-02
 -0.35378070D-05 -0.28001251D-05 -0.12190389D-05 -0.53879819D-03  0.84319167D-03
  0.60982347D-06 -0.27507400D-04  0.19547890D-03 -0.16797150D-03 -0.34219741D-03
 -0.28071011D-06  0.45430328D-06  0.21617825D-03  0.40166224D-03  0.67402115D-03
  0.98691389D-03  0.11493609D-02  0.84663698D-03  0.24720922D-03 -0.26668887D-05
 -0.86452557D-05  0.31796485D-04  0.50260242D-04  0.25847583D-03  0.10981208D-03
 -0.34070130D-03  0.47866828D-03 -0.26001437D-03 -0.20579776D-03 -0.89594386D-04
 -0.34381072D-03 -0.27212141D-03 -0.11846849D-03  0.71553715D-06  0.56633771D-06
  0.24655603D-06  0.34625917D-03 -0.10353791D-03 -0.49998319D-06  0.40687299D-03
 -0.56293706D-03  0.15606407D-03  0.33267410D-03 -0.65936228D-06 -0.18109250D-06
  0.32424969D-04  0.55000562D-04  0.62600185D-04  0.35684251D-05 -0.91583209D-05
 -0.14417553D-03  0.10967895D-06 -0.17140472D-05 -0.31825805D-05 -0.53348680D-05
 -0.77967259D-05 -0.90749650D-05 -0.68462769D-05 -0.20838789D-05 -0.19608785D-06
 -0.56082896D-06  0.20223705D-05  0.30246921D-05  0.16513817D-04  0.97774438D-05
 -0.23192763D-04 -0.33501180D-04  0.27111684D-04  0.21450830D-04  0.10254253D-04
  0.16563322D-04  0.13104941D-04  0.62646237D-05 -0.32111402D-05 -0.25406620D-05
 -0.12145260D-05 -0.34395350D-05 -0.53226301D-04  0.36671320D-05  0.95752403D-05
  0.60130343D-05 -0.15588275D-04  0.58081364D-04 -0.16048229D-05 -0.48662633D-05
  0.22571947D-05  0.38287461D-05  0.43577776D-05  0.25118038D-04  0.19053799D-04
  0.10492032D-04  0.21671930D-05 -0.11009051D-05 -0.18674004D-05 -0.21254258D-05
 -0.67583269D-05 -0.25702358D-05  0.22364532D-04 -0.23675053D-05 -0.83149743D-06
 -0.14104200D-05 -0.16053028D-05 -0.64879332D-05 -0.14836174D-04  0.23089784D-04
 -0.36944427D-05
MO    3     MO 0.0        OCC NO =    2.0000000  ORB. ENERGY =  -10.438074
  0.38212919D-03  0.70952361D-03  0.11893540D-02  0.17381999D-02  0.20231702D-02
  0.15263071D-02  0.46457937D-03 -0.10583153D-05 -0.30268774D-05  0.10915035D-04
  0.16324714D-04  0.89127533D-04  0.52770320D-04 -0.12517480D-03 -0.10121952D-03
  0.83450472D-03  0.66026218D-03  0.31562860D-03 -0.34314439D-04 -0.27149668D-04
 -0.12978499D-04 -0.14060482D-05 -0.11124687D-05 -0.53179929D-06 -0.93031627D-03
  0.12465377D-05  0.18467090D-05 -0.73571587D-03  0.24436418D-03  0.49135169D-03
 -0.17121382D-03  0.30646094D-05  0.23508298D-06 -0.30738222D-04 -0.57073614D-04
 -0.95670855D-04 -0.13981966D-03 -0.16274248D-03 -0.12277514D-03 -0.37370460D-04
 -0.19036570D-05 -0.54446310D-05  0.19633545D-04  0.29364269D-04  0.16031919D-03
  0.94921228D-04 -0.22515962D-03  0.46672640D-03  0.12811238D-03  0.10136283D-03
  0.48455007D-04  0.37487504D-05  0.29660205D-05  0.14178624D-05 -0.22726789D-06
 -0.17981491D-06 -0.85957868D-07 -0.37899813D-03 -0.40853822D-03  0.37683925D-06
 -0.13040234D-03  0.35010991D-03 -0.21970757D-03 -0.25499415D-03  0.29150916D-06
 -0.56059280D-06 -0.34845953D-04 -0.64700699D-04 -0.10845592D-03 -0.15850459D-03
 -0.18449072D-03 -0.13918231D-03 -0.42364496D-04 -0.21707105D-05 -0.62084279D-05
  0.22387826D-04  0.33483619D-04  0.18280947D-03  0.10823720D-03 -0.25674601D-03
  0.52580559D-03  0.14299768D-03  0.11314011D-03  0.54084964D-04 -0.11910847D-03
 -0.94238917D-04 -0.45049525D-04 -0.36352544D-06 -0.28762222D-06 -0.13749356D-06
 -0.24343755D-03  0.35108664D-03  0.24554751D-06 -0.59633654D-04  0.26260451D-03
 -0.20297085D-03  0.32400115D-03  0.26355532D-06  0.58433694D-06 -0.80017059D-04
 -0.13572822D-03 -0.15448227D-03  0.55751242D-04  0.12489630D-04  0.26195419D-03
 -0.56558159D-07 -0.73063028D-04 -0.12393250D-03 -0.14105670D-03  0.23369201D-04
  0.37153865D-04 -0.29216302D-03 -0.24286488D-06 -0.15024250D-04 -0.27896482D-04
 -0.46762069D-04 -0.68341154D-04 -0.79545388D-04 -0.60010121D-04 -0.18265960D-04
 -0.83607512D-06 -0.23912503D-05  0.86229392D-05  0.12896617D-04  0.70411256D-04
  0.41688852D-04 -0.98888800D-04  0.21835276D-03 -0.26311224D-04 -0.20817505D-04
 -0.99515015D-05  0.87635197D-05  0.69337183D-05  0.33145618D-05 -0.93032836D-06
 -0.73607808D-06 -0.35187128D-06 -0.24511645D-03  0.17737747D-03  0.14581665D-05
  0.82939534D-04 -0.47416641D-04 -0.35522892D-04 -0.14324019D-03 -0.21662679D-06
 -0.15261579D-06 -0.15083827D-04 -0.28007102D-04 -0.46947498D-04 -0.68612152D-04
 -0.79860814D-04 -0.60248083D-04 -0.18338392D-04 -0.89132502D-06 -0.25492700D-05
  0.91927642D-05  0.13748857D-04  0.75064205D-04  0.44443754D-04 -0.10542361D-03
  0.16019313D-03  0.39019739D-04  0.30872513D-04  0.14758150D-04 -0.10175952D-04
 -0.80512379D-05 -0.38487756D-05 -0.69082919D-06 -0.54658575D-06 -0.26128726D-06
 -0.15571673D-03 -0.11672833D-03  0.11869317D-05  0.68929140D-04 -0.40036763D-04
 -0.28892377D-04  0.13564259D-03 -0.12080130D-06  0.24850695D-06 -0.47236263D-05
 -0.80124086D-05 -0.91195115D-05  0.90717939D-06  0.43037930D-04 -0.98225739D-04
 -0.46736791D-06 -0.25657969D-05 -0.43522100D-05 -0.49535702D-05  0.87456635D-05
  0.26946489D-04  0.88984125D-04 -0.47648582D-06 -0.17115409D-04 -0.31779269D-04
 -0.53270673D-04 -0.77853255D-04 -0.90616955D-04 -0.68362662D-04 -0.20808318D-04
 -0.90531010D-06 -0.25892686D-05  0.93370007D-05  0.13964579D-04  0.76241979D-04
  0.45141086D-04 -0.10707773D-03  0.34091040D-03  0.68758381D-05  0.54401799D-05
  0.26005978D-05 -0.10355529D-04 -0.81933199D-05 -0.39166958D-05 -0.41376995D-06
 -0.32737580D-06 -0.15649717D-06 -0.11630059D-03  0.53097787D-04 -0.28149768D-05
  0.28980529D-04 -0.68380489D-05 -0.22142480D-04 -0.12650163D-05 -0.50722209D-05
  0.34102302D-06  0.36331844D+00  0.67459648D+00  0.11308066D+01  0.16526350D+01
  0.19235773D+01  0.14511728D+01  0.44170991D+00  0.11249818D-03  0.32175496D-03
 -0.11602606D-02 -0.17353057D-02 -0.94741945D-02 -0.56094482D-02  0.13305994D-01
 -0.17798545D-02 -0.12295041D-02 -0.97278665D-03 -0.46502632D-03 -0.55740750D-04
 -0.44102218D-04 -0.21082415D-04  0.18807182D-05  0.14880289D-05  0.71133027D-06
 -0.11216183D-02 -0.25519328D-05  0.98373606D-06  0.10831425D-04  0.82508054D-03
 -0.83591196D-03 -0.48632012D-03 -0.20800089D-05  0.22176536D-06 -0.55787780D-04
 -0.10365448D-03 -0.17394046D-03 -0.25468674D-03 -0.29660844D-03 -0.21848635D-03
 -0.63795749D-04  0.47936818D-05  0.15539683D-04 -0.57153578D-04 -0.90341830D-04
 -0.46460539D-03 -0.19738513D-03  0.61240412D-03 -0.14530437D-02 -0.14729904D-02
 -0.11658515D-02 -0.50755531D-03  0.14277149D-02  0.11300165D-02  0.49195451D-03
  0.12029432D-05  0.95211280D-06  0.41450384D-06 -0.14620641D-03  0.90788142D-03
  0.30964360D-06  0.99381581D-04 -0.11166974D-02  0.10173158D-02  0.18663909D-02
  0.20705425D-05 -0.20777234D-05  0.59257040D-04  0.11010041D-03  0.18475724D-03
  0.27052488D-03  0.31505355D-03  0.23207330D-03  0.67762998D-04  0.73355789D-05
  0.23779753D-04 -0.87459829D-04 -0.13824648D-03 -0.71096699D-03 -0.30205054D-03
  0.93713746D-03 -0.13398137D-02 -0.24881744D-03 -0.19693555D-03 -0.85736207D-04
 -0.69590868D-03 -0.55080205D-03 -0.23979256D-03  0.16816230D-07  0.13309813D-07
  0.57944483D-08 -0.87619368D-04 -0.95241915D-03  0.36049367D-06 -0.11495104D-03
 -0.15605657D-02  0.16755167D-02 -0.22778157D-02  0.43093309D-05  0.34464231D-05
  0.13294099D-03  0.22549996D-03  0.25665808D-03 -0.10655880D-03  0.42607690D-03
  0.15900241D-03 -0.51625483D-06 -0.12586342D-04 -0.23369862D-04 -0.39174227D-04
 -0.57251784D-04 -0.66637964D-04 -0.50272585D-04 -0.15302036D-04 -0.71655263D-06
 -0.20494052D-05  0.73902328D-05  0.11052960D-04  0.60345500D-04  0.35729154D-04
 -0.84751990D-04  0.10704781D-03  0.57619616D-04  0.45588781D-04  0.21793045D-04
  0.82198398D-05  0.65035573D-05  0.31089297D-05 -0.64526936D-05 -0.51053870D-05
 -0.24405550D-05 -0.58065562D-04 -0.14765074D-04  0.66951305D-05  0.10429727D-04
  0.10699758D-04 -0.21129485D-04  0.13261886D-04 -0.35215974D-05 -0.16743642D-05
 -0.47603380D-05 -0.80746805D-05 -0.91903877D-05  0.28781074D-04 -0.12098626D-04
  0.40494995D-05 -0.16971103D-05 -0.62661905D-05 -0.10628969D-04 -0.12097612D-04
 -0.34716764D-06  0.16430174D-04  0.54168676D-05 -0.10060803D-04 -0.45735592D-05
 -0.77578587D-05 -0.88297895D-05  0.72907681D-05  0.55246597D-05  0.84993595D-05
  0.33063393D-05
MO    4     MO 0.0        OCC NO =    2.0000000  ORB. ENERGY =  -10.323982