 Ethanol                                                 
GAUSSIAN             13 MOL ORBITALS    126 PRIMITIVES        9 NUCLEI
  C    1    (CENTRE  1)   2.36201080 -0.41886253  0.00016747  CHARGE =  6.0
  H    2    (CENTRE  2)   2.47411827 -1.58120613 -1.65055988  CHARGE =  1.0
  H    3    (CENTRE  3)   2.47404814 -1.58054724  1.65136334  CHARGE =  1.0
  H    4    (CENTRE  4)   3.89327460  0.90164596 -0.00006349  CHARGE =  1.0
  C    5    (CENTRE  5)  -0.16446516  1.02545572 -0.00017604  CHARGE =  6.0
  H    6    (CENTRE  6)  -0.27673182  2.18752279  1.65073518  CHARGE =  1.0
  H    7    (CENTRE  7)  -0.27634325  2.18741718 -1.65118796  CHARGE =  1.0
  O    8    (CENTRE  8)  -2.21092048 -0.73933605 -0.00036091  CHARGE =  8.0
  H    9    (CENTRE  9)  -3.78627588  0.16029674  0.00265150  CHARGE =  1.0
CENTRE ASSIGNMENTS    1  1  1  1  1  1  1  1  1  1  1  1  1  1  1  1  1  1  1  1
CENTRE ASSIGNMENTS    1  1  1  1  1  1  1  1  1  1  1  1  2  2  2  2  2  3  3  3
CENTRE ASSIGNMENTS    3  3  4  4  4  4  4  5  5  5  5  5  5  5  5  5  5  5  5  5
CENTRE ASSIGNMENTS    5  5  5  5  5  5  5  5  5  5  5  5  5  5  5  5  5  5  5  6
CENTRE ASSIGNMENTS    6  6  6  6  7  7  7  7  7  8  8  8  8  8  8  8  8  8  8  8
CENTRE ASSIGNMENTS    8  8  8  8  8  8  8  8  8  8  8  8  8  8  8  8  8  8  8  8
CENTRE ASSIGNMENTS    8  9  9  9  9  9
TYPE ASSIGNMENTS      1  1  1  1  1  1  1  1  1  2  2  2  3  3  3  4  4  4  1  2
TYPE ASSIGNMENTS      3  4  1  2  3  4  5  6  7  8  9 10  1  1  1  1  1  1  1  1
TYPE ASSIGNMENTS      1  1  1  1  1  1  1  1  1  1  1  1  1  1  1  1  2  2  2  3
TYPE ASSIGNMENTS      3  3  4  4  4  1  2  3  4  1  2  3  4  5  6  7  8  9 10  1
TYPE ASSIGNMENTS      1  1  1  1  1  1  1  1  1  1  1  1  1  1  1  1  1  1  2  2
TYPE ASSIGNMENTS      2  3  3  3  4  4  4  1  2  3  4  1  2  3  4  5  6  7  8  9
TYPE ASSIGNMENTS     10  1  1  1  1  1
EXPONENTS  0.3047525D+04 0.4573695D+03 0.1039487D+03 0.2921016D+02 0.9286663D+01
EXPONENTS  0.3163927D+01 0.7868272D+01 0.1881289D+01 0.5442493D+00 0.7868272D+01
EXPONENTS  0.1881289D+01 0.5442493D+00 0.7868272D+01 0.1881289D+01 0.5442493D+00
EXPONENTS  0.7868272D+01 0.1881289D+01 0.5442493D+00 0.1687145D+00 0.1687145D+00
EXPONENTS  0.1687145D+00 0.1687145D+00 0.4380000D-01 0.4380000D-01 0.4380000D-01
EXPONENTS  0.4380000D-01 0.8000000D+00 0.8000000D+00 0.8000000D+00 0.8000000D+00
EXPONENTS  0.8000000D+00 0.8000000D+00 0.1873114D+02 0.2825394D+01 0.6401217D+00
EXPONENTS  0.1612778D+00 0.3600000D-01 0.1873114D+02 0.2825394D+01 0.6401217D+00
EXPONENTS  0.1612778D+00 0.3600000D-01 0.1873114D+02 0.2825394D+01 0.6401217D+00
EXPONENTS  0.1612778D+00 0.3600000D-01 0.3047525D+04 0.4573695D+03 0.1039487D+03
EXPONENTS  0.2921016D+02 0.9286663D+01 0.3163927D+01 0.7868272D+01 0.1881289D+01
EXPONENTS  0.5442493D+00 0.7868272D+01 0.1881289D+01 0.5442493D+00 0.7868272D+01
EXPONENTS  0.1881289D+01 0.5442493D+00 0.7868272D+01 0.1881289D+01 0.5442493D+00
EXPONENTS  0.1687145D+00 0.1687145D+00 0.1687145D+00 0.1687145D+00 0.4380000D-01
EXPONENTS  0.4380000D-01 0.4380000D-01 0.4380000D-01 0.8000000D+00 0.8000000D+00
EXPONENTS  0.8000000D+00 0.8000000D+00 0.8000000D+00 0.8000000D+00 0.1873114D+02
EXPONENTS  0.2825394D+01 0.6401217D+00 0.1612778D+00 0.3600000D-01 0.1873114D+02
EXPONENTS  0.2825394D+01 0.6401217D+00 0.1612778D+00 0.3600000D-01 0.5484672D+04
EXPONENTS  0.8252349D+03 0.1880470D+03 0.5296450D+02 0.1689757D+02 0.5799635D+01
EXPONENTS  0.1553962D+02 0.3599934D+01 0.1013762D+01 0.1553962D+02 0.3599934D+01
EXPONENTS  0.1013762D+01 0.1553962D+02 0.3599934D+01 0.1013762D+01 0.1553962D+02
EXPONENTS  0.3599934D+01 0.1013762D+01 0.2700058D+00 0.2700058D+00 0.2700058D+00
EXPONENTS  0.2700058D+00 0.8450000D-01 0.8450000D-01 0.8450000D-01 0.8450000D-01
EXPONENTS  0.8000000D+00 0.8000000D+00 0.8000000D+00 0.8000000D+00 0.8000000D+00
EXPONENTS  0.8000000D+00 0.1873114D+02 0.2825394D+01 0.6401217D+00 0.1612778D+00
EXPONENTS  0.3600000D-01
MO    1     MO 0.0        OCC NO =    2.0000000  ORB. ENERGY = -20.5665539
  0.42149324D-05  0.77757273D-05  0.12552435D-04  0.16339540D-04  0.13942559D-04
  0.48140307D-05 -0.29160859D-04 -0.13440213D-04  0.37687761D-04  0.86067591D-05
  0.65991170D-05  0.32934219D-05 -0.48724234D-05 -0.37358652D-05 -0.18644586D-05
  0.14885720D-07  0.11413426D-07  0.56960995D-08 -0.28231061D-04  0.15036864D-04
  0.60458345D-05 -0.29924641D-07 -0.15727550D-03  0.42348779D-05 -0.20998193D-04
  0.27823336D-07 -0.57344750D-04  0.22662430D-04 -0.22969544D-05 -0.71765533D-05
  0.40001531D-07 -0.31560935D-07  0.63639550D-05  0.10794472D-04  0.12289125D-04
 -0.18504445D-05 -0.22781998D-04  0.63685495D-05  0.10802265D-04  0.12297997D-04
 -0.18525962D-05 -0.22868483D-04 -0.34222446D-05 -0.58047746D-05 -0.66085308D-05
  0.10986876D-04  0.48199580D-04 -0.22730587D-04 -0.41933495D-04 -0.67693663D-04
 -0.88117035D-04 -0.75190426D-04 -0.25961447D-04 -0.36611716D-04 -0.16874306D-04
  0.47317316D-04 -0.33953137D-03 -0.26033112D-03 -0.12992347D-03 -0.30217342D-03
 -0.23168741D-03 -0.11562826D-03 -0.54877936D-07 -0.42076921D-07 -0.20999332D-07
  0.17461079D-03 -0.52595441D-04 -0.11098436D-04  0.84292084D-07  0.23871193D-03
  0.18244755D-04 -0.19852827D-04 -0.33972757D-07  0.76627213D-04 -0.22415897D-04
 -0.10110251D-03  0.25358427D-03 -0.78662320D-07 -0.53944449D-08 -0.80700254D-05
 -0.13688290D-04 -0.15583635D-04 -0.43829377D-04 -0.10751678D-04 -0.80356689D-05
 -0.13630015D-04 -0.15517291D-04 -0.43767352D-04 -0.10861153D-04  0.82720910D+00
  0.15225063D+01  0.24637026D+01  0.32386061D+01  0.27777336D+01  0.94975430D+00
 -0.12940381D-01 -0.57739728D-02  0.17050619D-01 -0.59917607D-03 -0.46163286D-03
 -0.20268169D-03  0.41441031D-02  0.31928080D-02  0.14018147D-02  0.63089648D-05
  0.48607173D-05  0.21341167D-05  0.13670843D-02 -0.94990989D-05 -0.30384968D-03
 -0.40734638D-06 -0.26927417D-03 -0.22406748D-04  0.17623029D-04  0.41258136D-07
 -0.49960650D-02 -0.48522086D-02 -0.45718507D-02 -0.19986304D-03  0.66066725D-06
 -0.55834847D-06  0.78384529D-04  0.13295500D-03  0.15136456D-03  0.86450086D-05
  0.89915830D-05
MO    2     MO 0.0        OCC NO =    2.0000000  ORB. ENERGY = -11.2744376
  0.23356406D-02  0.43088008D-02  0.69557405D-02  0.90543074D-02  0.77260569D-02
  0.26676218D-02 -0.57780457D-04 -0.26630960D-04  0.74675991D-04 -0.17599436D-03
 -0.13494132D-03 -0.67345174D-04  0.32548377D-04  0.24956031D-04  0.12454809D-04
  0.26409932D-07  0.20249461D-07  0.10105900D-07  0.78209888D-03 -0.24296738D-03
  0.15225435D-03 -0.50302771D-07  0.95465258D-04  0.37992741D-06  0.97598583D-05
  0.35413536D-07 -0.35636622D-03 -0.24898493D-03 -0.12437770D-03  0.31573449D-03
 -0.87212809D-07  0.79750730D-07 -0.32410640D-04 -0.54974581D-04 -0.62586617D-04
 -0.21886974D-04  0.28630456D-04 -0.32401556D-04 -0.54959172D-04 -0.62569075D-04
 -0.21875097D-04  0.28466020D-04 -0.30503283D-04 -0.51739341D-04 -0.58903411D-04
 -0.44727753D-04 -0.65515571D-04  0.53419442D+00  0.98548439D+00  0.15908774D+01
  0.20708496D+01  0.17670598D+01  0.61012327D+00 -0.11274121D-01 -0.51962323D-02
  0.14570778D-01 -0.93132296D-03 -0.71407938D-03 -0.35637566D-03 -0.87210008D-03
 -0.66867103D-03 -0.33371371D-03  0.19668603D-06  0.15080637D-06  0.75262948D-07
 -0.34950610D-02  0.29812498D-04  0.21313650D-03 -0.72275911D-07 -0.47172866D-03
  0.48115026D-04  0.29123643D-04 -0.36443073D-07 -0.15710602D-02 -0.14908295D-02
 -0.13975272D-02  0.75186160D-04 -0.81532812D-07  0.10180530D-06  0.27538155D-04
  0.46709923D-04  0.53177597D-04  0.54388700D-03  0.16539191D-04  0.27580471D-04
  0.46781699D-04  0.53259311D-04  0.54367497D-03  0.16533393D-04 -0.60349096D-04
 -0.11107455D-03 -0.17973959D-03 -0.23627273D-03 -0.20264974D-03 -0.69289389D-04
 -0.24601810D-03 -0.10977280D-03  0.32416054D-03  0.47511136D-03  0.36604769D-03
  0.16071465D-03  0.34645819D-03  0.26692736D-03  0.11719549D-03 -0.12924556D-06
 -0.99576734D-07 -0.43719550D-07  0.11880964D-03  0.26179470D-04  0.64971848D-04
  0.14259851D-06  0.87508631D-03  0.13868998D-03  0.13637672D-03  0.34854617D-07
 -0.18127870D-03 -0.11474847D-03  0.23928302D-03 -0.81610879D-03 -0.20666519D-06
  0.97045873D-07 -0.45228107D-05 -0.76715429D-05 -0.87337805D-05 -0.13537971D-03
  0.98641093D-04
MO    3     MO 0.0        OCC NO =    2.0000000  ORB. ENERGY = -11.2104483
  0.53405292D+00  0.98522335D+00  0.15904560D+01  0.20703011D+01  0.17665917D+01
  0.60996165D+00 -0.11566222D-01 -0.53308611D-02  0.14948291D-01 -0.12277578D-03
 -0.94136683D-04 -0.46980803D-04  0.11798732D-03  0.90465192D-04  0.45148471D-04
 -0.24830278D-07 -0.19038282D-07 -0.95014373D-08 -0.31401259D-02  0.14733944D-03
 -0.44942643D-04 -0.19536723D-07 -0.20362831D-03  0.39376129D-04 -0.13785710D-05
  0.43356885D-09 -0.21371727D-02 -0.20284945D-02 -0.19903225D-02  0.19250398D-03
 -0.43506887D-07  0.78384179D-08  0.18061276D-04  0.30635342D-04  0.34877254D-04
  0.60090733D-03 -0.57669804D-05  0.18057981D-04  0.30629754D-04  0.34870892D-04
  0.60096215D-03 -0.57609138D-05  0.11049122D-04  0.18741403D-04  0.21336425D-04
  0.54248788D-03 -0.68648068D-04 -0.24886861D-02 -0.45911400D-02 -0.74115234D-02
 -0.96476013D-02 -0.82323157D-02 -0.28424208D-02  0.19089302D-05  0.87982419D-06
 -0.24671189D-05  0.11669469D-03  0.89474084D-04  0.44653839D-04 -0.35608118D-04
 -0.27302046D-04 -0.13625634D-04 -0.59697908D-07 -0.45772569D-07 -0.22843720D-07
  0.72380627D-03  0.26712335D-03 -0.13034389D-03  0.12340243D-06  0.24667963D-03
  0.24148228D-04 -0.11406609D-04  0.40358345D-07 -0.41332171D-03 -0.25478599D-03
 -0.84388263D-04  0.25618330D-03 -0.61623945D-07  0.22227471D-07 -0.31991732D-04
 -0.54264033D-04 -0.61777683D-04 -0.10485179D-04 -0.67291754D-05 -0.31995646D-04
 -0.54270671D-04 -0.61785241D-04 -0.10340993D-04 -0.65402156D-05  0.32141757D-05
  0.59157991D-05  0.95728796D-05  0.12583818D-04  0.10793068D-04  0.36903331D-05
  0.32763782D-04  0.14619136D-04 -0.43170503D-04 -0.27422648D-03 -0.21127672D-03
 -0.92761859D-04  0.32449591D-04  0.25000660D-04  0.10976637D-04  0.39536875D-07
  0.30461031D-07  0.13374033D-07 -0.92373043D-04  0.63297903D-04 -0.14656819D-04
 -0.67338135D-07 -0.15559096D-04  0.54065950D-04 -0.22278384D-04 -0.78621857D-07
  0.11939242D-03 -0.21083867D-07 -0.10781053D-03 -0.30800674D-04  0.19278337D-06
 -0.19008897D-06 -0.10989087D-04 -0.18639572D-04 -0.21220494D-04  0.17901975D-03
  0.23463797D-04
MO    4     MO 0.0        OCC NO =    2.0000000  ORB. ENERGY =  -1.3557451
 -0.76587709D-02 -0.14128937D-01 -0.22808485D-01 -0.29689870D-01 -0.25334420D-01
 -0.87473664D-02 -0.90673424D-02 -0.41791298D-02  0.11718716D-01 -0.24617117D-01
 -0.18874844D-01 -0.94198701D-02  0.66397400D-02  0.50909315D-02  0.25407316D-02
 -0.26620195D-05 -0.20410677D-05 -0.10186358D-05  0.64368591D-02 -0.21572157D-02
 -0.33412209D-04  0.40601126D-06  0.63794998D-02 -0.70394649D-03  0.74764144D-04
 -0.19281485D-06  0.53044352D-02 -0.28212839D-03 -0.38052740D-03 -0.47131463D-02
  0.15374427D-05  0.52919666D-06  0.12122536D-02  0.20562115D-02  0.23409242D-02
 -0.88013107D-03 -0.68127523D-03  0.12122975D-02  0.20562860D-02  0.23410089D-02
 -0.88082121D-03 -0.68072227D-03  0.89755223D-03  0.15224185D-02  0.17332196D-02
 -0.39048596D-03  0.82667965D-03 -0.37105705D-01 -0.68452780D-01 -0.11050401D+00
 -0.14384339D+00 -0.12274183D+00 -0.42379803D-01 -0.51713388D-01 -0.23834653D-01
  0.66834856D-01 -0.91445028D-01 -0.70114248D-01 -0.34991923D-01 -0.72708305D-01
 -0.55748117D-01 -0.27822217D-01  0.75939645D-05  0.58225703D-05  0.29058707D-05
  0.65271788D-02 -0.28338682D-03  0.17979833D-02 -0.26730832D-05 -0.35915603D-02
 -0.86358884D-03  0.18212563D-03 -0.13740981D-05  0.12728993D-01  0.60639694D-02
 -0.49182716D-02  0.30798642D-01 -0.43057225D-05  0.21049536D-05  0.57418345D-02
  0.97392380D-02  0.11087778D-01 -0.16571609D-03 -0.13795158D-03  0.57406046D-02
  0.97371520D-02  0.11085403D-01 -0.17231587D-03 -0.14488442D-03 -0.16885019D+00
 -0.31077449D+00 -0.50289178D+00 -0.66106533D+00 -0.56699189D+00 -0.19386416D+00
 -0.28174454D+00 -0.12571386D+00  0.37123473D+00 -0.19057720D-01 -0.14682946D-01
 -0.64466039D-02  0.25801153D+00  0.19878397D+00  0.87276872D-01  0.38778514D-03
  0.29876755D-03  0.13117504D-03  0.11883611D+00  0.71803970D-04  0.15678322D-01
  0.23031445D-04  0.14349142D-02 -0.16936513D-02  0.38968072D-03  0.27366081D-05
  0.25609293D-01  0.15825141D-01 -0.27606124D-02 -0.63787127D-02 -0.71444273D-04
  0.61225425D-04  0.26791448D-01  0.45443367D-01  0.51735667D-01 -0.71543710D-02
 -0.61648501D-03
MO    5     MO 0.0        OCC NO =    2.0000000  ORB. ENERGY =  -1.0153384
 -0.82657961D-01 -0.15248780D+00 -0.24616259D+00 -0.32043055D+00 -0.27342397D+00
 -0.94406725D-01 -0.11411841D+00 -0.52597070D-01  0.14748768D+00 -0.50419417D-01
 -0.38658411D-01 -0.19293257D-01  0.37786110D-01  0.28971993D-01  0.14459055D-01
 -0.81519595D-05 -0.62504055D-05 -0.31193904D-05  0.50239079D-01 -0.27417143D-03
  0.14928631D-02 -0.75530265D-06  0.23052525D-02 -0.10821297D-03  0.78798708D-04
 -0.17201954D-06  0.97496792D-02  0.84448016D-02  0.65004825D-02 -0.49079681D-02
  0.19460620D-05 -0.46310986D-06  0.20278321D-01  0.34395870D-01  0.39158482D-01
  0.23283835D-02 -0.16680893D-03  0.20278326D-01  0.34395880D-01  0.39158493D-01
  0.23291322D-02 -0.16609854D-03  0.21275369D-01  0.36087053D-01  0.41083835D-01
  0.17407706D-02  0.31819758D-05 -0.65285984D-01 -0.12043989D+00 -0.19442733D+00
 -0.25308661D+00 -0.21595927D+00 -0.74565545D-01 -0.93387638D-01 -0.43042277D-01
  0.12069504D+00  0.12760128D+00  0.97836569D-01  0.48827305D-01 -0.71778538D-02
 -0.55035230D-02 -0.27466437D-02  0.65689462D-05  0.50366513D-05  0.25136420D-05
  0.38925424D-01  0.26681488D-02  0.85668352D-03  0.17220297D-05 -0.22752551D-03
 -0.33864171D-03 -0.56904368D-04  0.19513965D-06  0.44260802D-02  0.37668288D-02
  0.58524644D-02 -0.23603468D-01  0.20262635D-05  0.99551953D-06  0.16942854D-01
  0.28738287D-01  0.32717524D-01  0.22869482D-02  0.18809695D-03  0.16942876D-01
  0.28738324D-01  0.32717566D-01  0.22884583D-02  0.18819449D-03  0.41077709D-01
  0.75604912D-01  0.12234302D+00  0.16082332D+00  0.13793723D+00  0.47163082D-01
  0.69495519D-01  0.31008765D-01 -0.91569299D-01  0.34167749D+00  0.26324409D+00
  0.11557833D+00  0.41277939D-01  0.31802427D-01  0.13962978D-01 -0.23592515D-03
 -0.18176761D-03 -0.79805770D-04 -0.37336285D-01  0.14713678D-01  0.44892245D-03
 -0.12829860D-04 -0.33949532D-02 -0.52662434D-03 -0.43078159D-03 -0.19049167D-06
 -0.49869727D-02  0.94593539D-03 -0.30951132D-03  0.24808725D-01  0.46428206D-04
 -0.20806048D-04 -0.15318776D-01 -0.25983543D-01 -0.29581345D-01 -0.74409204D-03
 -0.73269297D-03
MO    6     MO 0.0        OCC NO =    2.0000000  ORB. ENERGY =  -0.8460585
  0.62221510D-01  0.11478654D+00  0.18530106D+00  0.24120692D+00  0.20582231D+00
  0.71065496D-01  0.86370318D-01  0.39808001D-01 -0.11162579D+00 -0.13534224D+00
 -0.10377184D+00 -0.51789423D-01  0.88654118D-01  0.67974354D-01  0.33923967D-01
 -0.20707828D-04 -0.15877449D-04 -0.79239599D-05 -0.46919740D-01 -0.54772727D-02
  0.35671650D-02 -0.26352202D-05 -0.21235152D-02  0.45076928D-03  0.45278087D-06
 -0.21794184D-06  0.64347200D-02 -0.61950423D-02 -0.14114593D-01 -0.25088821D-01
  0.66847667D-05 -0.41827694D-05 -0.23806601D-01 -0.40380502D-01 -0.45971774D-01
 -0.57216031D-02 -0.63824737D-04 -0.23806818D-01 -0.40380870D-01 -0.45972193D-01
 -0.57193264D-02 -0.62865906D-04 -0.22810476D-01 -0.38690884D-01 -0.44048204D-01
 -0.66731418D-02 -0.61764807D-03 -0.69097134D-01 -0.12747072D+00 -0.20577727D+00
 -0.26786086D+00 -0.22856616D+00 -0.78918401D-01 -0.10075711D+00 -0.46438858D-01
  0.13021941D+00 -0.93967423D-01 -0.72048260D-01 -0.35957131D-01  0.13642801D+00
  0.10460434D+00  0.52204899D-01 -0.33035838D-04 -0.25329785D-04 -0.12641338D-04
  0.49897500D-01 -0.31426914D-02  0.76204879D-02  0.20260108D-05  0.16918411D-02
 -0.77091120D-04 -0.29817168D-03  0.85589575D-07 -0.12472323D-01  0.50943581D-02
  0.17054397D-01  0.11789475D-01 -0.67314599D-05  0.77286042D-05  0.28244098D-01
  0.47907335D-01  0.54540808D-01  0.88633336D-02  0.75059587D-03  0.28244841D-01
  0.47908597D-01  0.54542244D-01  0.88647006D-02  0.74983457D-03  0.32235454D-01
  0.59330444D-01  0.96007857D-01  0.12620502D+00  0.10824531D+00  0.37010909D-01
  0.56061408D-01  0.25014491D-01 -0.73868127D-01  0.47928415D+00  0.36926260D+00
  0.16212617D+00  0.27987816D+00  0.21563103D+00  0.94673637D-01 -0.38863280D-03
 -0.29942062D-03 -0.13146178D-03 -0.32806755D-01  0.24962094D-01  0.12812535D-01
 -0.21316920D-04 -0.24482228D-02 -0.12888209D-03 -0.59846991D-03 -0.11052138D-06
 -0.82572586D-02  0.91867247D-02 -0.25170305D-02  0.33239318D-01  0.54297551D-04
 -0.13775988D-04 -0.15825906D-01 -0.26843733D-01 -0.30560641D-01 -0.23889500D-02
 -0.77404738D-03
MO    7     MO 0.0        OCC NO =    2.0000000  ORB. ENERGY =  -0.6994095
  0.50232779D-02  0.92669668D-02  0.14959758D-01  0.19473160D-01  0.16616482D-01
  0.57372721D-02  0.49228968D-02  0.22689587D-02 -0.63623969D-02 -0.11944352D+00
 -0.91581712D-01 -0.45705693D-01 -0.10830167D+00 -0.83038854D-01 -0.41442208D-01
 -0.26502679D-03 -0.20320573D-03 -0.10141390D-03 -0.66780428D-02 -0.56375420D-02
 -0.57013253D-02 -0.12967467D-04 -0.48812390D-02  0.22374955D-03 -0.36223628D-03
  0.97811475D-06  0.47418140D-03 -0.51932750D-02  0.43324518D-02 -0.91181684D-02
  0.18009259D-04  0.22013096D-04  0.36963124D-02  0.62696455D-02  0.71377698D-02
  0.30566154D-02 -0.15632621D-03  0.36521267D-02  0.61946981D-02  0.70524448D-02
  0.30353815D-02 -0.16101499D-03 -0.16851195D-01 -0.28582817D-01 -0.32540527D-01
 -0.70799664D-02  0.70938011D-03  0.59629506D-02  0.11000479D-01  0.17758185D-01
  0.23115880D-01  0.19724822D-01  0.68105071D-02  0.78079325D-02  0.35986690D-02
 -0.10091043D-01 -0.77231387D-01 -0.59216129D-01 -0.29552998D-01 -0.32922931D+00
 -0.25243215D+00 -0.12598133D+00 -0.62755031D-03 -0.48116578D-03 -0.24013544D-03
 -0.92439817D-02 -0.49491350D-03 -0.15387768D-01 -0.27878307D-04  0.50915892D-02
  0.21208027D-03 -0.84140361D-03 -0.30824994D-06  0.54001696D-02  0.13353460D-01
 -0.20821625D-01  0.32113978D-01  0.43781274D-04 -0.41167446D-04 -0.19592971D-01
 -0.33233388D-01 -0.37835037D-01 -0.76376803D-02  0.44228912D-03 -0.19497510D-01
 -0.33071468D-01 -0.37650697D-01 -0.75809932D-02  0.44168286D-03 -0.26619964D-01
 -0.48994943D-01 -0.79283067D-01 -0.10421981D+00 -0.89388726D-01 -0.30563523D-01
 -0.45305136D-01 -0.20215064D-01  0.59695353D-01  0.12934329D+01  0.99652029D+00
  0.43752608D+00 -0.38570802D+00 -0.29716723D+00 -0.13047242D+00 -0.22500603D-02
 -0.17335502D-02 -0.76112191D-03  0.34571904D-01  0.71020620D-01 -0.20805111D-01
 -0.12299814D-03 -0.24955601D-02 -0.16067445D-02 -0.68345035D-03  0.19382928D-06
 -0.87196561D-02 -0.10135028D-01  0.48977133D-02  0.63130691D-01  0.11762908D-03
 -0.12538996D-03 -0.46173935D-01 -0.78319733D-01 -0.89164248D-01 -0.17817201D-01
 -0.18283314D-02
MO    8     MO 0.0        OCC NO =    2.0000000  ORB. ENERGY =  -0.6524315
  0.85122420D-05  0.15703424D-04  0.25350196D-04  0.32998423D-04  0.28157614D-04
  0.97221474D-05  0.66757469D-05  0.30768456D-05 -0.86277963D-05 -0.36142731D-03
 -0.27711954D-03 -0.13830207D-03 -0.24483048D-03 -0.18772048D-03 -0.93685677D-04
  0.26658493D+00  0.20440041D+00  0.10201013D+00 -0.13009745D-04 -0.15325867D-04
 -0.10706077D-04  0.15043205D-01 -0.26427789D-04  0.29118079D-05 -0.94853135D-06
 -0.41631896D-03 -0.14346369D-05 -0.15580887D-04  0.17820873D-04 -0.36234453D-04
 -0.93074435D-02 -0.20919721D-01 -0.21303402D-01 -0.36134602D-01 -0.41137967D-01
 -0.10455456D-01 -0.14822674D-02  0.21327808D-01  0.36175999D-01  0.41185097D-01
  0.10477057D-01  0.14842876D-02 -0.49086681D-04 -0.83260302D-04 -0.94788911D-04
 -0.26472887D-04 -0.13603496D-05 -0.20788803D-05 -0.38351283D-05 -0.61910861D-05
 -0.80589546D-05 -0.68767206D-05 -0.23743664D-05 -0.32580080D-05 -0.15016129D-05
  0.42106794D-05 -0.14589608D-03 -0.11186386D-03 -0.55827905D-04 -0.57539224D-03
 -0.44117427D-03 -0.22017688D-03  0.46331769D+00  0.35524262D+00  0.17729096D+00
 -0.71950808D-05 -0.63022218D-05 -0.30548292D-04  0.23149604D-01  0.21674439D-04
  0.25255997D-05 -0.26992210D-05 -0.90728640D-04  0.10174743D-04  0.23829552D-04
 -0.33634330D-04  0.40682440D-04 -0.98967198D-02  0.38760335D-01  0.36478452D-01
  0.61874359D-01  0.70441770D-01  0.20739936D-01  0.10911747D-02 -0.36539185D-01
 -0.61977374D-01 -0.70559050D-01 -0.20760111D-01 -0.10886822D-02  0.13404603D-04
  0.24671625D-04  0.39923346D-04  0.52480356D-04  0.45012096D-04  0.15390400D-04
  0.23694792D-04  0.10572570D-04 -0.31220941D-04  0.21895303D-02  0.16869151D-02
  0.74064659D-03 -0.37518477D-03 -0.28905964D-03 -0.12691275D-03  0.78504559D+00
  0.60483531D+00  0.26555528D+00 -0.17239787D-04  0.12470036D-03 -0.23445343D-04
  0.44482264D-01 -0.80443681D-05  0.19125156D-05 -0.17757648D-05  0.52488449D-03
 -0.18119374D-04 -0.17377080D-04  0.31586090D-04  0.88892586D-04  0.39474940D-02
  0.29612850D-01 -0.36364237D-04 -0.61680629D-04 -0.70221216D-04 -0.66222250D-05
 -0.56360635D-06
MO    9     MO 0.0        OCC NO =    2.0000000  ORB. ENERGY =  -0.5698598
 -0.47920976D-02 -0.88404843D-02 -0.14271283D-01 -0.18576970D-01 -0.15851762D-01
 -0.54732325D-02 -0.51524828D-02 -0.23747746D-02  0.66591159D-02  0.70046646D-01
  0.53707325D-01  0.26803719D-01 -0.37364273D+00 -0.28648555D+00 -0.14297637D+00
 -0.25053659D-03 -0.19209557D-03 -0.95869151D-04  0.12359100D-01  0.28322775D-02
 -0.20066114D-01 -0.20189616D-04  0.10812681D-01 -0.44022361D-03  0.10542223D-02
 -0.11426489D-05 -0.17663650D-01 -0.18901991D-02  0.23368621D-01 -0.37652715D-02
 -0.19302481D-05  0.45921785D-04  0.25093042D-01  0.42562549D-01  0.48455957D-01
  0.14574163D-01  0.11733864D-02  0.25036681D-01  0.42466950D-01  0.48347122D-01
  0.14546523D-01  0.11745986D-02 -0.19081549D-01 -0.32365918D-01 -0.36847454D-01
 -0.15160792D-01 -0.23829243D-02  0.27708317D-02  0.51116435D-02  0.82517776D-02
  0.10741363D-01  0.91656242D-02  0.31646698D-02  0.39465205D-02  0.18189477D-02
 -0.51005191D-02 -0.33441288D+00 -0.25640659D+00 -0.12796486D+00 -0.25355043D-01
 -0.19440639D-01 -0.97022412D-02 -0.12517141D-03 -0.95973494D-04 -0.47897500D-04
 -0.99300409D-02 -0.20028258D-01  0.22495414D-02 -0.27372191D-05 -0.10044437D-01
 -0.16318331D-02  0.86798798D-03  0.72471874D-06  0.76319601D-02  0.64225238D-03
 -0.32939751D-02  0.27653143D-01 -0.18229933D-04 -0.26884636D-05 -0.12127587D-02
 -0.20570684D-02 -0.23418996D-02 -0.67399587D-03 -0.18235961D-03 -0.11967028D-02
 -0.20298345D-02 -0.23108948D-02 -0.66399081D-03 -0.18060008D-03  0.36725428D-01
  0.67594392D-01  0.10938049D+00  0.14378371D+00  0.12332245D+00  0.42166041D-01
  0.64968517D-01  0.28988826D-01 -0.85604391D-01  0.13588605D+00  0.10469288D+00
  0.45965812D-01  0.12564431D+01  0.96802165D+00  0.42501365D+00  0.42530358D-03
  0.32767348D-03  0.14386631D-03 -0.47229173D-01  0.77818329D-02  0.75406158D-01
  0.24580711D-04 -0.15857721D-02  0.74321782D-03  0.14052640D-02 -0.43272764D-07
 -0.91798861D-02  0.29696152D-01 -0.11362546D-01  0.75787371D-03 -0.56795378D-05
  0.72603261D-04  0.12314997D-01  0.20888566D-01  0.23780894D-01  0.57914498D-02
 -0.39057218D-03
MO   10     MO 0.0        OCC NO =    2.0000000  ORB. ENERGY =  -0.5421372
  0.12613346D-02  0.23269160D-02  0.37563640D-02  0.48896698D-02  0.41723641D-02
  0.14406171D-02  0.34134671D-02  0.15732639D-02 -0.44115961D-02  0.41193510D+00
  0.31584571D+00  0.15762915D+00  0.29570832D+00  0.22673038D+00  0.11315435D+00
  0.18010274D-02  0.13809136D-02  0.68917266D-03  0.25610282D-02  0.23807448D-01
  0.20922168D-01  0.12215871D-03  0.24748158D-02 -0.77818485D-04  0.23404453D-03
  0.16877150D-05  0.15451065D-01  0.49791598D-02 -0.17854130D-01  0.56592544D-01
  0.27187076D-04 -0.23795830D-03 -0.17205436D-01 -0.29183675D-01 -0.33224583D-01
 -0.10374130D-01 -0.14081060D-03 -0.16871564D-01 -0.28617367D-01 -0.32579860D-01
 -0.10169363D-01 -0.13624278D-03  0.57166672D-01  0.96965495D-01  0.11039179D+00
  0.38448418D-01  0.10559706D-02  0.98641602D-02  0.18197449D-01  0.29376326D-01
  0.38239248D-01  0.32629619D-01  0.11266223D-01  0.12907325D-01  0.59489745D-02
 -0.16681545D-01 -0.25811938D+00 -0.19790957D+00 -0.98770747D-01 -0.42601568D-01
 -0.32664180D-01 -0.16301715D-01 -0.36482693D-03 -0.27972615D-03 -0.13960295D-03
 -0.20661881D-01 -0.12953835D-01  0.17432531D-02 -0.24188212D-04 -0.58839932D-02
 -0.35562562D-03  0.45449264D-03 -0.19835156D-05  0.12700408D-01 -0.20883536D-02
 -0.85467229D-02  0.49233377D-01  0.12233584D-03 -0.25096759D-04 -0.59117710D-02
 -0.10027483D-01 -0.11415935D-01 -0.35974288D-02  0.33914533D-03 -0.58545257D-02
 -0.99303837D-02 -0.11305391D-01 -0.35565356D-02  0.33534238D-03 -0.47325974D-02
 -0.87105056D-02 -0.14095242D-01 -0.18528591D-01 -0.15891864D-01 -0.54336984D-02
 -0.53477571D-02 -0.23861588D-02  0.70463589D-02  0.62325640D+00  0.48018546D+00
  0.21082728D+00  0.50317297D+00  0.38766764D+00  0.17020698D+00 -0.37264118D-02
 -0.28709994D-02 -0.12605234D-02  0.95076631D-02  0.41635796D-01  0.32886800D-01
 -0.23334843D-03  0.48895410D-02  0.14376664D-02  0.54458776D-03 -0.58622928D-05
 -0.11932488D-01  0.11787486D-01 -0.50111445D-02  0.29417517D-01  0.65281577D-04
 -0.10120141D-03 -0.13408248D-01 -0.22742926D-01 -0.25892017D-01 -0.71573561D-02
 -0.20854563D-03
MO   11     MO 0.0        OCC NO =    2.0000000  ORB. ENERGY =  -0.5347949
 -0.49171659D-05 -0.90712110D-05 -0.14643747D-04 -0.19061808D-04 -0.16265475D-04
 -0.56160777D-05 -0.88057885D-05 -0.40585799D-05  0.11380682D-04 -0.11963893D-02
 -0.91731545D-03 -0.45780470D-03 -0.13815942D-02 -0.10593188D-02 -0.52867434D-03
  0.49423822D+00  0.37895052D+00  0.18912287D+00 -0.32394699D-05 -0.73164511D-04
 -0.96068658D-04  0.34231525D-01  0.20963313D-04 -0.30963828D-05  0.27225465D-06
  0.46917925D-03 -0.86790149D-04 -0.25568660D-04  0.10507279D-03 -0.18932280D-03
  0.11827104D-01 -0.63684743D-01 -0.45009898D-01 -0.76345307D-01 -0.86916433D-01
 -0.28006849D-01 -0.66742792D-03  0.45192034D-01  0.76654243D-01  0.87268147D-01
  0.28116506D-01  0.66799596D-03 -0.21323035D-03 -0.36167904D-03 -0.41175880D-03
 -0.14663586D-03 -0.32249170D-05 -0.22171877D-04 -0.40902784D-04 -0.66029775D-04
 -0.85951148D-04 -0.73342270D-04 -0.25323323D-04 -0.23105451D-04 -0.10649281D-04
  0.29861696D-04  0.64160562D-03  0.49194250D-03  0.24551378D-03  0.60028307D-03
  0.46025898D-03  0.22970149D-03 -0.16825299D+00 -0.12900572D+00 -0.64382897D-01
  0.68782240D-04  0.30209159D-04  0.20082886D-04 -0.11817313D-01 -0.19505418D-05
 -0.21909764D-05  0.71301444D-06 -0.50965485D-03 -0.69941159D-04  0.41164064D-05
  0.58961156D-04 -0.16892128D-03  0.32142375D-01 -0.20725233D-01 -0.14848401D-01
 -0.25185698D-01 -0.28673027D-01 -0.10237801D-01  0.22879207D-03  0.14939419D-01
  0.25340082D-01  0.28848788D-01  0.10293405D-01 -0.23255331D-03 -0.16607353D-04
 -0.30566395D-04 -0.49462197D-04 -0.65019443D-04 -0.55766798D-04 -0.19067615D-04
 -0.40242408D-04 -0.17956084D-04  0.53024556D-04 -0.29324337D-02 -0.22592821D-02
 -0.99194654D-03 -0.16450245D-02 -0.12674027D-02 -0.55645805D-03 -0.88290352D+00
 -0.68022957D+00 -0.29865742D+00  0.12721933D-04 -0.19556994D-03 -0.10768222D-03
 -0.55346189D-01 -0.11753853D-04 -0.10093945D-04 -0.90765671D-06 -0.13577269D-02
  0.41349919D-04 -0.22819517D-04 -0.97496949D-05 -0.11763650D-03  0.29905992D-02
 -0.28733348D-01  0.22359850D-04  0.37926537D-04  0.43178022D-04  0.18722620D-05
 -0.16346219D-05
MO   12     MO 0.0        OCC NO =    2.0000000  ORB. ENERGY =  -0.4834300
 -0.10496879D-01 -0.19364691D-01 -0.31260616D-01 -0.40692034D-01 -0.34722586D-01
 -0.11988875D-01 -0.16319150D-01 -0.75214811D-02  0.21091018D-01 -0.31316677D+00
 -0.24011641D+00 -0.11983492D+00  0.26978161D+00  0.20685143D+00  0.10323336D+00
  0.53977130D-03  0.41386240D-03  0.20654634D-03  0.13684264D-01 -0.19107245D-01
  0.20067418D-01  0.36776845D-04  0.71128077D-02 -0.63367076D-03  0.61449827D-03
 -0.14415405D-05  0.19866425D-01 -0.51365852D-02 -0.16371056D-01 -0.20549704D-01
  0.38501105D-04 -0.10827735D-03 -0.16920957D-01 -0.28701146D-01 -0.32675241D-01
 -0.13388256D-01 -0.48154562D-03 -0.16799523D-01 -0.28495171D-01 -0.32440745D-01
 -0.13293888D-01 -0.47346497D-03 -0.30749948D-02 -0.52157732D-02 -0.59379735D-02
 -0.48659761D-02 -0.41036705D-03 -0.87318374D-02 -0.16108535D-01 -0.26004170D-01
 -0.33849703D-01 -0.28884013D-01 -0.99729555D-02 -0.17780637D-01 -0.81950794D-02
  0.22979858D-01  0.22709812D+00  0.17412443D+00  0.86900296D-01 -0.39913162D+00
 -0.30602881D+00 -0.15272983D+00 -0.85047498D-03 -0.65209027D-03 -0.32543875D-03
  0.78261997D-03  0.13264563D-01 -0.22952154D-01 -0.51679541D-04 -0.71849500D-02
 -0.58615643D-03  0.22484869D-03  0.22125928D-05  0.37565718D-01 -0.12891296D-01
 -0.24734105D-01 -0.95447439D-02  0.49076327D-05 -0.17815166D-03 -0.25683593D-01
 -0.43564234D-01 -0.49596341D-01 -0.20057292D-01 -0.45496580D-03 -0.25499282D-01
 -0.43251609D-01 -0.49240428D-01 -0.19901406D-01 -0.44086658D-03  0.28978561D-01
  0.53336022D-01  0.86307751D-01  0.11345395D+00  0.97308798D-01  0.33271531D-01
  0.51387982D-01  0.22929218D-01 -0.67710287D-01 -0.22304306D+00 -0.17184265D+00
 -0.75448181D-01  0.10071375D+01  0.77594517D+00  0.34068172D+00  0.22563314D-02
  0.17383817D-02  0.76324319D-03 -0.40409164D-01 -0.15351570D-01  0.66138520D-01
  0.15023827D-03 -0.24724479D-02  0.50625808D-03  0.24431342D-02  0.38367287D-05
  0.70744212D-02  0.14396706D-01 -0.11773933D-01 -0.19686372D-01 -0.62600823D-04
  0.99954052D-04  0.24178379D-01  0.41011108D-01  0.46689697D-01  0.15976618D-01
  0.65631726D-03
MO   13     MO 0.0        OCC NO =    2.0000000  ORB. ENERGY =  -0.4460043
  0.32620551D-04  0.60178546D-04  0.97146833D-04  0.12645631D-03  0.10790540D-03
  0.37257141D-04  0.47527899D-04  0.21905565D-04 -0.61425491D-04  0.75640214D-03
  0.57996118D-03  0.28944128D-03 -0.38093049D-03 -0.29207334D-03 -0.14576507D-03
  0.12336379D+00  0.94587528D-01  0.47205805D-01 -0.49204926D-04  0.50605237D-04
 -0.32915128D-04  0.75288750D-02 -0.50419484D-04  0.55097580D-05 -0.26120342D-05
 -0.85039296D-03 -0.27481138D-04  0.50635695D-05  0.25844920D-04  0.67072494D-04
  0.95059576D-02 -0.27877641D-01 -0.13859173D-01 -0.23507781D-01 -0.26762777D-01